# Start time: Mon Aug 12 14:16:43 2024	0 records skipped (hole values)
# Stop time:  Mon Aug 12 14:45:19 2024	0 records skipped (time variance,tolerance=5000ms)
# Time 	BH8CrossingAngle=-(cell(b7bx_h)-cell(b8bx_h))/16250 	YH8CrossingAngle=-(cell(y7bx_h)-cell(y8bx_h))/16250 	GH8CrossingAngle=BH8CrossingAngle-YH8CrossingAngle 	
08/12/2024 14:16:43 	-0.0693538 	-0.114892 	0.0455385 	
08/12/2024 14:16:44 	-0.0692923 	-0.114892 	0.0456 	
08/12/2024 14:16:45 	-0.0694769 	-0.114831 	0.0453538 	
08/12/2024 14:16:46 	-0.0692923 	-0.114954 	0.0456615 	
08/12/2024 14:16:47 	-0.0692308 	-0.114831 	0.0456 	
08/12/2024 14:16:48 	-0.0692308 	-0.114892 	0.0456615 	
08/12/2024 14:16:49 	-0.0694154 	-0.114892 	0.0454769 	
08/12/2024 14:16:50 	-0.0694154 	-0.114954 	0.0455385 	
08/12/2024 14:16:51 	-0.0693538 	-0.114831 	0.0454769 	
08/12/2024 14:16:52 	-0.0692308 	-0.1152 	0.0459692 	
08/12/2024 14:16:53 	-0.0691692 	-0.115262 	0.0460923 	
08/12/2024 14:16:54 	-0.0692308 	-0.115077 	0.0458462 	
08/12/2024 14:16:55 	-0.0692308 	-0.114954 	0.0457231 	
08/12/2024 14:16:56 	-0.0693538 	-0.114954 	0.0456 	
08/12/2024 14:16:57 	-0.0692923 	-0.115138 	0.0458462 	
08/12/2024 14:16:58 	-0.0692308 	-0.1152 	0.0459692 	
08/12/2024 14:16:59 	-0.0691692 	-0.115262 	0.0460923 	
08/12/2024 14:17:00 	-0.0691692 	-0.115262 	0.0460923 	
08/12/2024 14:17:01 	-0.0692308 	-0.115262 	0.0460308 	
08/12/2024 14:17:02 	-0.0692308 	-0.115323 	0.0460923 	
08/12/2024 14:17:03 	-0.0693538 	-0.115015 	0.0456615 	
08/12/2024 14:17:04 	-0.0694154 	-0.115077 	0.0456615 	
08/12/2024 14:17:05 	-0.0693538 	-0.115077 	0.0457231 	
08/12/2024 14:17:06 	-0.0692923 	-0.115138 	0.0458462 	
08/12/2024 14:17:07 	-0.0692308 	-0.115138 	0.0459077 	
08/12/2024 14:17:08 	-0.0692308 	-0.115077 	0.0458462 	
08/12/2024 14:17:09 	-0.0692923 	-0.115077 	0.0457846 	
08/12/2024 14:17:10 	-0.0692923 	-0.1152 	0.0459077 	
08/12/2024 14:17:11 	-0.0692308 	-0.1152 	0.0459692 	
08/12/2024 14:17:12 	-0.0691692 	-0.115138 	0.0459692 	
08/12/2024 14:17:13 	-0.0692923 	-0.115138 	0.0458462 	
08/12/2024 14:17:14 	-0.0692923 	-0.1152 	0.0459077 	
08/12/2024 14:17:15 	-0.0692923 	-0.114954 	0.0456615 	
08/12/2024 14:17:16 	-0.0693538 	-0.114708 	0.0453538 	
08/12/2024 14:17:17 	-0.0694154 	-0.114831 	0.0454154 	
08/12/2024 14:17:18 	-0.0694154 	-0.115015 	0.0456 	
08/12/2024 14:17:19 	-0.0694154 	-0.115077 	0.0456615 	
08/12/2024 14:17:20 	-0.0692923 	-0.115077 	0.0457846 	
08/12/2024 14:17:21 	-0.0692923 	-0.114954 	0.0456615 	
08/12/2024 14:17:22 	-0.0693538 	-0.115015 	0.0456615 	
08/12/2024 14:17:23 	-0.0694769 	-0.115015 	0.0455385 	
08/12/2024 14:17:24 	-0.0695385 	-0.114954 	0.0454154 	
08/12/2024 14:17:25 	-0.0695385 	-0.114892 	0.0453538 	
08/12/2024 14:17:26 	-0.0694769 	-0.115138 	0.0456615 	
08/12/2024 14:17:27 	-0.0694769 	-0.115385 	0.0459077 	
08/12/2024 14:17:28 	-0.0694769 	-0.115446 	0.0459692 	
08/12/2024 14:17:29 	-0.0694154 	-0.115323 	0.0459077 	
08/12/2024 14:17:30 	-0.0694769 	-0.115138 	0.0456615 	
08/12/2024 14:17:31 	-0.0696 	-0.115138 	0.0455385 	
08/12/2024 14:17:32 	-0.0696615 	-0.114892 	0.0452308 	
08/12/2024 14:17:33 	-0.0696615 	-0.114769 	0.0451077 	
08/12/2024 14:17:34 	-0.0694769 	-0.114831 	0.0453538 	
08/12/2024 14:17:35 	-0.0694769 	-0.114892 	0.0454154 	
08/12/2024 14:17:36 	-0.0694769 	-0.114892 	0.0454154 	
08/12/2024 14:17:37 	-0.0694769 	-0.114954 	0.0454769 	
08/12/2024 14:17:38 	-0.0694154 	-0.114954 	0.0455385 	
08/12/2024 14:17:39 	-0.0692923 	-0.114892 	0.0456 	
08/12/2024 14:17:40 	-0.0694154 	-0.114646 	0.0452308 	
08/12/2024 14:17:41 	-0.0696 	-0.114585 	0.0449846 	
08/12/2024 14:17:42 	-0.0695385 	-0.114585 	0.0450462 	
08/12/2024 14:17:43 	-0.0695385 	-0.114462 	0.0449231 	
08/12/2024 14:17:44 	-0.0696615 	-0.114215 	0.0445538 	
08/12/2024 14:17:45 	-0.0697231 	-0.114215 	0.0444923 	
08/12/2024 14:17:46 	-0.0697231 	-0.114338 	0.0446154 	
08/12/2024 14:17:47 	-0.0697846 	-0.1144 	0.0446154 	
08/12/2024 14:17:48 	-0.0696615 	-0.1144 	0.0447385 	
08/12/2024 14:17:49 	-0.0698462 	-0.114338 	0.0444923 	
08/12/2024 14:17:50 	-0.0698462 	-0.1144 	0.0445538 	
08/12/2024 14:17:51 	-0.0697846 	-0.114462 	0.0446769 	
08/12/2024 14:17:52 	-0.0697846 	-0.1144 	0.0446154 	
08/12/2024 14:17:53 	-0.0697231 	-0.114154 	0.0444308 	
08/12/2024 14:17:54 	-0.0697231 	-0.114031 	0.0443077 	
08/12/2024 14:17:55 	-0.0697846 	-0.114277 	0.0444923 	
08/12/2024 14:17:56 	-0.0697231 	-0.114277 	0.0445538 	
08/12/2024 14:17:57 	-0.0696615 	-0.114215 	0.0445538 	
08/12/2024 14:17:58 	-0.0697846 	-0.114215 	0.0444308 	
08/12/2024 14:17:59 	-0.0697231 	-0.114277 	0.0445538 	
08/12/2024 14:18:00 	-0.0697231 	-0.114462 	0.0447385 	
08/12/2024 14:18:01 	-0.0697231 	-0.114646 	0.0449231 	
08/12/2024 14:18:02 	-0.0696615 	-0.114585 	0.0449231 	
08/12/2024 14:18:03 	-0.0696 	-0.114338 	0.0447385 	
08/12/2024 14:18:04 	-0.0696615 	-0.114215 	0.0445538 	
08/12/2024 14:18:05 	-0.0697231 	-0.114215 	0.0444923 	
08/12/2024 14:18:06 	-0.0697846 	-0.114215 	0.0444308 	
08/12/2024 14:18:07 	-0.0698462 	-0.114277 	0.0444308 	
08/12/2024 14:18:08 	-0.0697231 	-0.114277 	0.0445538 	
08/12/2024 14:18:09 	-0.0696615 	-0.114215 	0.0445538 	
08/12/2024 14:18:10 	-0.0697231 	-0.114092 	0.0443692 	
08/12/2024 14:18:11 	-0.0698462 	-0.114154 	0.0443077 	
08/12/2024 14:18:12 	-0.0698462 	-0.113969 	0.0441231 	
08/12/2024 14:18:13 	-0.0697846 	-0.114031 	0.0442462 	
08/12/2024 14:18:14 	-0.0697846 	-0.114092 	0.0443077 	
08/12/2024 14:18:15 	-0.0697846 	-0.114277 	0.0444923 	
08/12/2024 14:18:16 	-0.0697231 	-0.114523 	0.0448 	
08/12/2024 14:18:17 	-0.0697846 	-0.114585 	0.0448 	
08/12/2024 14:18:18 	-0.0697846 	-0.114523 	0.0447385 	
08/12/2024 14:18:19 	-0.0698462 	-0.114338 	0.0444923 	
08/12/2024 14:18:20 	-0.0697231 	-0.114338 	0.0446154 	
08/12/2024 14:18:21 	-0.0696615 	-0.114215 	0.0445538 	
08/12/2024 14:18:22 	-0.0697231 	-0.114215 	0.0444923 	
08/12/2024 14:18:23 	-0.0697846 	-0.114215 	0.0444308 	
08/12/2024 14:18:24 	-0.0698462 	-0.114338 	0.0444923 	
08/12/2024 14:18:25 	-0.0697846 	-0.114215 	0.0444308 	
08/12/2024 14:18:26 	-0.0699692 	-0.113969 	0.044 	
08/12/2024 14:18:27 	-0.0702154 	-0.113846 	0.0436308 	
08/12/2024 14:18:28 	-0.0701538 	-0.113908 	0.0437538 	
08/12/2024 14:18:29 	-0.0698462 	-0.114154 	0.0443077 	
08/12/2024 14:18:30 	-0.0697231 	-0.114215 	0.0444923 	
08/12/2024 14:18:31 	-0.0697846 	-0.114031 	0.0442462 	
08/12/2024 14:18:32 	-0.0698462 	-0.113908 	0.0440615 	
08/12/2024 14:18:33 	-0.0697846 	-0.113969 	0.0441846 	
08/12/2024 14:18:34 	-0.0698462 	-0.114154 	0.0443077 	
08/12/2024 14:18:35 	-0.0698462 	-0.114154 	0.0443077 	
08/12/2024 14:18:36 	-0.0698462 	-0.114215 	0.0443692 	
08/12/2024 14:18:37 	-0.0697846 	-0.114277 	0.0444923 	
08/12/2024 14:18:38 	-0.0698462 	-0.1144 	0.0445538 	
08/12/2024 14:18:39 	-0.0699692 	-0.114277 	0.0443077 	
08/12/2024 14:18:40 	-0.0700308 	-0.114215 	0.0441846 	
08/12/2024 14:18:41 	-0.0700308 	-0.114277 	0.0442462 	
08/12/2024 14:18:42 	-0.0700308 	-0.1144 	0.0443692 	
08/12/2024 14:18:43 	-0.0699077 	-0.1144 	0.0444923 	
08/12/2024 14:18:44 	-0.0699077 	-0.114462 	0.0445538 	
08/12/2024 14:18:45 	-0.0699692 	-0.114523 	0.0445538 	
08/12/2024 14:18:46 	-0.0700308 	-0.114523 	0.0444923 	
08/12/2024 14:18:47 	-0.0702154 	-0.114462 	0.0442462 	
08/12/2024 14:18:48 	-0.0700923 	-0.114523 	0.0444308 	
08/12/2024 14:18:49 	-0.0700923 	-0.114708 	0.0446154 	
08/12/2024 14:18:50 	-0.0700308 	-0.114892 	0.0448615 	
08/12/2024 14:18:51 	-0.0699077 	-0.114831 	0.0449231 	
08/12/2024 14:18:52 	-0.0699692 	-0.114892 	0.0449231 	
08/12/2024 14:18:53 	-0.0700308 	-0.114892 	0.0448615 	
08/12/2024 14:18:54 	-0.0700308 	-0.114892 	0.0448615 	
08/12/2024 14:18:55 	-0.0700308 	-0.114892 	0.0448615 	
08/12/2024 14:18:56 	-0.0699077 	-0.114769 	0.0448615 	
08/12/2024 14:18:57 	-0.0699077 	-0.114769 	0.0448615 	
08/12/2024 14:18:58 	-0.0699077 	-0.114646 	0.0447385 	
08/12/2024 14:18:59 	-0.0698462 	-0.114523 	0.0446769 	
08/12/2024 14:19:00 	-0.0698462 	-0.114462 	0.0446154 	
08/12/2024 14:19:01 	-0.0698462 	-0.1144 	0.0445538 	
08/12/2024 14:19:02 	-0.0699692 	-0.114523 	0.0445538 	
08/12/2024 14:19:03 	-0.0699692 	-0.114585 	0.0446154 	
08/12/2024 14:19:04 	-0.0698462 	-0.114585 	0.0447385 	
08/12/2024 14:19:05 	-0.0697846 	-0.114215 	0.0444308 	
08/12/2024 14:19:06 	-0.0697846 	-0.114092 	0.0443077 	
08/12/2024 14:19:07 	-0.0699077 	-0.114031 	0.0441231 	
08/12/2024 14:19:08 	-0.0700923 	-0.113969 	0.0438769 	
08/12/2024 14:19:09 	-0.0699692 	-0.113785 	0.0438154 	
08/12/2024 14:19:10 	-0.0698462 	-0.113969 	0.0441231 	
08/12/2024 14:19:11 	-0.0699692 	-0.114154 	0.0441846 	
08/12/2024 14:19:12 	-0.0699692 	-0.114338 	0.0443692 	
08/12/2024 14:19:13 	-0.0699077 	-0.114462 	0.0445538 	
08/12/2024 14:19:14 	-0.0699692 	-0.114585 	0.0446154 	
08/12/2024 14:19:15 	-0.0700308 	-0.114708 	0.0446769 	
08/12/2024 14:19:16 	-0.0699692 	-0.114585 	0.0446154 	
08/12/2024 14:19:17 	-0.0700923 	-0.114154 	0.0440615 	
08/12/2024 14:19:18 	-0.0703385 	-0.114031 	0.0436923 	
08/12/2024 14:19:19 	-0.0702154 	-0.114215 	0.044 	
08/12/2024 14:19:20 	-0.0697231 	-0.1144 	0.0446769 	
08/12/2024 14:19:21 	-0.0696 	-0.114338 	0.0447385 	
08/12/2024 14:19:22 	-0.0697231 	-0.1144 	0.0446769 	
08/12/2024 14:19:23 	-0.0699077 	-0.114277 	0.0443692 	
08/12/2024 14:19:24 	-0.0698462 	-0.114277 	0.0444308 	
08/12/2024 14:19:25 	-0.0697231 	-0.1144 	0.0446769 	
08/12/2024 14:19:26 	-0.0698462 	-0.114338 	0.0444923 	
08/12/2024 14:19:27 	-0.0699077 	-0.114215 	0.0443077 	
08/12/2024 14:19:28 	-0.0699077 	-0.114154 	0.0442462 	
08/12/2024 14:19:29 	-0.0698462 	-0.114154 	0.0443077 	
08/12/2024 14:19:30 	-0.0698462 	-0.113969 	0.0441231 	
08/12/2024 14:19:31 	-0.0699077 	-0.113969 	0.0440615 	
08/12/2024 14:19:32 	-0.0697846 	-0.114215 	0.0444308 	
08/12/2024 14:19:33 	-0.0696615 	-0.114462 	0.0448 	
08/12/2024 14:19:34 	-0.0696615 	-0.114462 	0.0448 	
08/12/2024 14:19:35 	-0.0697231 	-0.114154 	0.0444308 	
08/12/2024 14:19:36 	-0.0697846 	-0.113908 	0.0441231 	
08/12/2024 14:19:37 	-0.0698462 	-0.113846 	0.044 	
08/12/2024 14:19:38 	-0.0696615 	-0.113969 	0.0443077 	
08/12/2024 14:19:39 	-0.0696615 	-0.114092 	0.0444308 	
08/12/2024 14:19:40 	-0.0696615 	-0.1144 	0.0447385 	
08/12/2024 14:19:41 	-0.0696 	-0.114585 	0.0449846 	
08/12/2024 14:19:42 	-0.0696615 	-0.114338 	0.0446769 	
08/12/2024 14:19:43 	-0.0697846 	-0.114277 	0.0444923 	
08/12/2024 14:19:44 	-0.0697846 	-0.114462 	0.0446769 	
08/12/2024 14:19:45 	-0.0697231 	-0.114646 	0.0449231 	
08/12/2024 14:19:46 	-0.0697231 	-0.114646 	0.0449231 	
08/12/2024 14:19:47 	-0.0696615 	-0.114769 	0.0451077 	
08/12/2024 14:19:48 	-0.0697231 	-0.114831 	0.0451077 	
08/12/2024 14:19:49 	-0.0696615 	-0.114831 	0.0451692 	
08/12/2024 14:19:50 	-0.0696 	-0.114769 	0.0451692 	
08/12/2024 14:19:51 	-0.0696615 	-0.114708 	0.0450462 	
08/12/2024 14:19:52 	-0.0697846 	-0.114892 	0.0451077 	
08/12/2024 14:19:53 	-0.0696615 	-0.115138 	0.0454769 	
08/12/2024 14:19:54 	-0.0695385 	-0.115077 	0.0455385 	
08/12/2024 14:19:55 	-0.0696 	-0.115015 	0.0454154 	
08/12/2024 14:19:56 	-0.0696615 	-0.115077 	0.0454154 	
08/12/2024 14:19:57 	-0.0696 	-0.1152 	0.0456 	
08/12/2024 14:19:58 	-0.0697846 	-0.115077 	0.0452923 	
08/12/2024 14:19:59 	-0.0699077 	-0.115077 	0.0451692 	
08/12/2024 14:20:00 	-0.0699077 	-0.115077 	0.0451692 	
08/12/2024 14:20:01 	-0.0699077 	-0.1152 	0.0452923 	
08/12/2024 14:20:02 	-0.0697231 	-0.115077 	0.0453538 	
08/12/2024 14:20:03 	-0.0696615 	-0.114954 	0.0452923 	
08/12/2024 14:20:04 	-0.0696615 	-0.114892 	0.0452308 	
08/12/2024 14:20:05 	-0.0697846 	-0.114892 	0.0451077 	
08/12/2024 14:20:06 	-0.0697231 	-0.114769 	0.0450462 	
08/12/2024 14:20:07 	-0.0696615 	-0.114769 	0.0451077 	
08/12/2024 14:20:08 	-0.0698462 	-0.114646 	0.0448 	
08/12/2024 14:20:09 	-0.0702154 	-0.114585 	0.0443692 	
08/12/2024 14:20:10 	-0.0704615 	-0.114646 	0.0441846 	
08/12/2024 14:20:11 	-0.0699077 	-0.114646 	0.0447385 	
08/12/2024 14:20:12 	-0.0697231 	-0.114523 	0.0448 	
08/12/2024 14:20:13 	-0.0699077 	-0.1144 	0.0444923 	
08/12/2024 14:20:14 	-0.0699077 	-0.114277 	0.0443692 	
08/12/2024 14:20:15 	-0.0700308 	-0.114462 	0.0444308 	
08/12/2024 14:20:16 	-0.0699692 	-0.114462 	0.0444923 	
08/12/2024 14:20:17 	-0.0699692 	-0.114585 	0.0446154 	
08/12/2024 14:20:18 	-0.0699077 	-0.114831 	0.0449231 	
08/12/2024 14:20:19 	-0.0700923 	-0.114892 	0.0448 	
08/12/2024 14:20:20 	-0.0700923 	-0.114708 	0.0446154 	
08/12/2024 14:20:21 	-0.0700308 	-0.114892 	0.0448615 	
08/12/2024 14:20:22 	-0.0699692 	-0.115015 	0.0450462 	
08/12/2024 14:20:23 	-0.0699077 	-0.115077 	0.0451692 	
08/12/2024 14:20:24 	-0.0700923 	-0.115015 	0.0449231 	
08/12/2024 14:20:25 	-0.0700923 	-0.114831 	0.0447385 	
08/12/2024 14:20:26 	-0.0700923 	-0.114646 	0.0445538 	
08/12/2024 14:20:27 	-0.0701538 	-0.114708 	0.0445538 	
08/12/2024 14:20:28 	-0.0702154 	-0.114769 	0.0445538 	
08/12/2024 14:20:29 	-0.0700308 	-0.114831 	0.0448 	
08/12/2024 14:20:30 	-0.0698462 	-0.114892 	0.0450462 	
08/12/2024 14:20:31 	-0.0697846 	-0.115015 	0.0452308 	
08/12/2024 14:20:32 	-0.0698462 	-0.114769 	0.0449231 	
08/12/2024 14:20:33 	-0.0698462 	-0.114523 	0.0446769 	
08/12/2024 14:20:34 	-0.0698462 	-0.114585 	0.0447385 	
08/12/2024 14:20:35 	-0.0699077 	-0.114708 	0.0448 	
08/12/2024 14:20:36 	-0.0699692 	-0.114585 	0.0446154 	
08/12/2024 14:20:37 	-0.0699077 	-0.114523 	0.0446154 	
08/12/2024 14:20:38 	-0.0699077 	-0.114646 	0.0447385 	
08/12/2024 14:20:39 	-0.0699692 	-0.114769 	0.0448 	
08/12/2024 14:20:40 	-0.0700308 	-0.114769 	0.0447385 	
08/12/2024 14:20:41 	-0.0700308 	-0.114708 	0.0446769 	
08/12/2024 14:20:42 	-0.0699692 	-0.114708 	0.0447385 	
08/12/2024 14:20:43 	-0.0699692 	-0.114892 	0.0449231 	
08/12/2024 14:20:44 	-0.0699692 	-0.114769 	0.0448 	
08/12/2024 14:20:45 	-0.0699692 	-0.114646 	0.0446769 	
08/12/2024 14:20:46 	-0.0699692 	-0.114585 	0.0446154 	
08/12/2024 14:20:47 	-0.0698462 	-0.114462 	0.0446154 	
08/12/2024 14:20:48 	-0.0699692 	-0.114523 	0.0445538 	
08/12/2024 14:20:49 	-0.0699077 	-0.114462 	0.0445538 	
08/12/2024 14:20:50 	-0.0699077 	-0.114462 	0.0445538 	
08/12/2024 14:20:51 	-0.0699077 	-0.114462 	0.0445538 	
08/12/2024 14:20:52 	-0.0698462 	-0.114523 	0.0446769 	
08/12/2024 14:20:53 	-0.0699692 	-0.114585 	0.0446154 	
08/12/2024 14:20:54 	-0.0700308 	-0.114523 	0.0444923 	
08/12/2024 14:20:55 	-0.0699077 	-0.114523 	0.0446154 	
08/12/2024 14:20:56 	-0.0699077 	-0.114585 	0.0446769 	
08/12/2024 14:20:57 	-0.0698462 	-0.114708 	0.0448615 	
08/12/2024 14:20:58 	-0.0698462 	-0.114831 	0.0449846 	
08/12/2024 14:20:59 	-0.0699077 	-0.114831 	0.0449231 	
08/12/2024 14:21:00 	-0.0697846 	-0.114708 	0.0449231 	
08/12/2024 14:21:01 	-0.0698462 	-0.114708 	0.0448615 	
08/12/2024 14:21:02 	-0.0699077 	-0.114892 	0.0449846 	
08/12/2024 14:21:03 	-0.0699692 	-0.114892 	0.0449231 	
08/12/2024 14:21:04 	-0.0699077 	-0.114954 	0.0450462 	
08/12/2024 14:21:05 	-0.0699077 	-0.115015 	0.0451077 	
08/12/2024 14:21:06 	-0.0699692 	-0.115138 	0.0451692 	
08/12/2024 14:21:07 	-0.0698462 	-0.114954 	0.0451077 	
08/12/2024 14:21:08 	-0.0699692 	-0.114831 	0.0448615 	
08/12/2024 14:21:09 	-0.0699692 	-0.114769 	0.0448 	
08/12/2024 14:21:10 	-0.0699692 	-0.114708 	0.0447385 	
08/12/2024 14:21:11 	-0.0698462 	-0.114769 	0.0449231 	
08/12/2024 14:21:12 	-0.0699077 	-0.114892 	0.0449846 	
08/12/2024 14:21:13 	-0.0698462 	-0.114892 	0.0450462 	
08/12/2024 14:21:14 	-0.0702154 	-0.114954 	0.0447385 	
08/12/2024 14:21:15 	-0.0705846 	-0.114954 	0.0443692 	
08/12/2024 14:21:16 	-0.0704615 	-0.115015 	0.0445538 	
08/12/2024 14:21:17 	-0.0698462 	-0.114892 	0.0450462 	
08/12/2024 14:21:18 	-0.0695385 	-0.114831 	0.0452923 	
08/12/2024 14:21:19 	-0.0694769 	-0.114646 	0.0451692 	
08/12/2024 14:21:20 	-0.0696 	-0.114646 	0.0450462 	
08/12/2024 14:21:21 	-0.0697231 	-0.114646 	0.0449231 	
08/12/2024 14:21:22 	-0.0699077 	-0.114646 	0.0447385 	
08/12/2024 14:21:23 	-0.0699077 	-0.114646 	0.0447385 	
08/12/2024 14:21:24 	-0.0699077 	-0.114708 	0.0448 	
08/12/2024 14:21:25 	-0.0698462 	-0.114708 	0.0448615 	
08/12/2024 14:21:26 	-0.0697231 	-0.114831 	0.0451077 	
08/12/2024 14:21:27 	-0.0696 	-0.114954 	0.0453538 	
08/12/2024 14:21:28 	-0.0696615 	-0.115077 	0.0454154 	
08/12/2024 14:21:29 	-0.0696615 	-0.115077 	0.0454154 	
08/12/2024 14:21:30 	-0.0697846 	-0.1152 	0.0454154 	
08/12/2024 14:21:31 	-0.0697846 	-0.115262 	0.0454769 	
08/12/2024 14:21:32 	-0.0697231 	-0.115385 	0.0456615 	
08/12/2024 14:21:33 	-0.0697231 	-0.1152 	0.0454769 	
08/12/2024 14:21:34 	-0.0696615 	-0.115262 	0.0456 	
08/12/2024 14:21:35 	-0.0696615 	-0.115077 	0.0454154 	
08/12/2024 14:21:36 	-0.0696615 	-0.115015 	0.0453538 	
08/12/2024 14:21:37 	-0.0697846 	-0.114892 	0.0451077 	
08/12/2024 14:21:38 	-0.0697846 	-0.114954 	0.0451692 	
08/12/2024 14:21:39 	-0.0697846 	-0.115077 	0.0452923 	
08/12/2024 14:21:40 	-0.0697846 	-0.115262 	0.0454769 	
08/12/2024 14:21:41 	-0.0697231 	-0.115323 	0.0456 	
08/12/2024 14:21:42 	-0.0697846 	-0.115385 	0.0456 	
08/12/2024 14:21:43 	-0.0698462 	-0.115446 	0.0456 	
08/12/2024 14:21:44 	-0.0699077 	-0.115569 	0.0456615 	
08/12/2024 14:21:45 	-0.0699077 	-0.115569 	0.0456615 	
08/12/2024 14:21:46 	-0.0699077 	-0.115508 	0.0456 	
08/12/2024 14:21:47 	-0.0698462 	-0.115446 	0.0456 	
08/12/2024 14:21:48 	-0.0697846 	-0.115446 	0.0456615 	
08/12/2024 14:21:49 	-0.0698462 	-0.115446 	0.0456 	
08/12/2024 14:21:50 	-0.0697846 	-0.115385 	0.0456 	
08/12/2024 14:21:51 	-0.0699692 	-0.115262 	0.0452923 	
08/12/2024 14:21:52 	-0.0699077 	-0.115446 	0.0455385 	
08/12/2024 14:21:53 	-0.0698462 	-0.115508 	0.0456615 	
08/12/2024 14:21:54 	-0.0697846 	-0.115446 	0.0456615 	
08/12/2024 14:21:55 	-0.0698462 	-0.115323 	0.0454769 	
08/12/2024 14:21:56 	-0.0697846 	-0.1152 	0.0454154 	
08/12/2024 14:21:57 	-0.0697846 	-0.115323 	0.0455385 	
08/12/2024 14:21:58 	-0.0697231 	-0.115508 	0.0457846 	
08/12/2024 14:21:59 	-0.0698462 	-0.115508 	0.0456615 	
08/12/2024 14:22:00 	-0.0698462 	-0.115508 	0.0456615 	
08/12/2024 14:22:01 	-0.0698462 	-0.115385 	0.0455385 	
08/12/2024 14:22:02 	-0.0698462 	-0.115262 	0.0454154 	
08/12/2024 14:22:03 	-0.0697846 	-0.115323 	0.0455385 	
08/12/2024 14:22:04 	-0.0697231 	-0.115323 	0.0456 	
08/12/2024 14:22:05 	-0.0698462 	-0.114954 	0.0451077 	
08/12/2024 14:22:06 	-0.0698462 	-0.114769 	0.0449231 	
08/12/2024 14:22:07 	-0.0698462 	-0.114769 	0.0449231 	
08/12/2024 14:22:08 	-0.0697846 	-0.115077 	0.0452923 	
08/12/2024 14:22:09 	-0.0697846 	-0.115262 	0.0454769 	
08/12/2024 14:22:10 	-0.0698462 	-0.115138 	0.0452923 	
08/12/2024 14:22:11 	-0.0698462 	-0.1152 	0.0453538 	
08/12/2024 14:22:12 	-0.0698462 	-0.1152 	0.0453538 	
08/12/2024 14:22:13 	-0.0698462 	-0.1152 	0.0453538 	
08/12/2024 14:22:14 	-0.0698462 	-0.115077 	0.0452308 	
08/12/2024 14:22:15 	-0.0696615 	-0.115015 	0.0453538 	
08/12/2024 14:22:16 	-0.0698462 	-0.1152 	0.0453538 	
08/12/2024 14:22:17 	-0.0698462 	-0.115446 	0.0456 	
08/12/2024 14:22:18 	-0.0697846 	-0.115569 	0.0457846 	
08/12/2024 14:22:19 	-0.0699692 	-0.115446 	0.0454769 	
08/12/2024 14:22:20 	-0.0698462 	-0.115262 	0.0454154 	
08/12/2024 14:22:21 	-0.0698462 	-0.1152 	0.0453538 	
08/12/2024 14:22:22 	-0.0698462 	-0.1152 	0.0453538 	
08/12/2024 14:22:23 	-0.0698462 	-0.115323 	0.0454769 	
08/12/2024 14:22:24 	-0.0696 	-0.115262 	0.0456615 	
08/12/2024 14:22:25 	-0.0696 	-0.115385 	0.0457846 	
08/12/2024 14:22:26 	-0.0696 	-0.115446 	0.0458462 	
08/12/2024 14:22:27 	-0.0696615 	-0.115385 	0.0457231 	
08/12/2024 14:22:28 	-0.0697231 	-0.115262 	0.0455385 	
08/12/2024 14:22:29 	-0.0697846 	-0.115262 	0.0454769 	
08/12/2024 14:22:30 	-0.0697231 	-0.115446 	0.0457231 	
08/12/2024 14:22:31 	-0.0697231 	-0.115569 	0.0458462 	
08/12/2024 14:22:32 	-0.0697231 	-0.115569 	0.0458462 	
08/12/2024 14:22:33 	-0.0697231 	-0.115323 	0.0456 	
08/12/2024 14:22:34 	-0.0696615 	-0.115015 	0.0453538 	
08/12/2024 14:22:35 	-0.0697846 	-0.114954 	0.0451692 	
08/12/2024 14:22:36 	-0.0697846 	-0.115138 	0.0453538 	
08/12/2024 14:22:37 	-0.0696 	-0.115323 	0.0457231 	
08/12/2024 14:22:38 	-0.0697231 	-0.115446 	0.0457231 	
08/12/2024 14:22:39 	-0.0697846 	-0.115385 	0.0456 	
08/12/2024 14:22:40 	-0.0697846 	-0.115262 	0.0454769 	
08/12/2024 14:22:41 	-0.0696615 	-0.115138 	0.0454769 	
08/12/2024 14:22:42 	-0.0696 	-0.115077 	0.0454769 	
08/12/2024 14:22:43 	-0.0695385 	-0.115077 	0.0455385 	
08/12/2024 14:22:44 	-0.0696 	-0.115015 	0.0454154 	
08/12/2024 14:22:45 	-0.0695385 	-0.115138 	0.0456 	
08/12/2024 14:22:46 	-0.0695385 	-0.115015 	0.0454769 	
08/12/2024 14:22:47 	-0.0696 	-0.115015 	0.0454154 	
08/12/2024 14:22:48 	-0.0697231 	-0.114831 	0.0451077 	
08/12/2024 14:22:49 	-0.0697846 	-0.114954 	0.0451692 	
08/12/2024 14:22:50 	-0.0697846 	-0.1152 	0.0454154 	
08/12/2024 14:22:51 	-0.0697231 	-0.115385 	0.0456615 	
08/12/2024 14:22:52 	-0.0697231 	-0.115446 	0.0457231 	
08/12/2024 14:22:53 	-0.0696615 	-0.115262 	0.0456 	
08/12/2024 14:22:54 	-0.0697231 	-0.115262 	0.0455385 	
08/12/2024 14:22:55 	-0.0698462 	-0.115323 	0.0454769 	
08/12/2024 14:22:56 	-0.0697846 	-0.1152 	0.0454154 	
08/12/2024 14:22:57 	-0.0697846 	-0.1152 	0.0454154 	
08/12/2024 14:22:58 	-0.0698462 	-0.1152 	0.0453538 	
08/12/2024 14:22:59 	-0.0697846 	-0.1152 	0.0454154 	
08/12/2024 14:23:00 	-0.0697846 	-0.114954 	0.0451692 	
08/12/2024 14:23:01 	-0.0697231 	-0.114892 	0.0451692 	
08/12/2024 14:23:02 	-0.0698462 	-0.114831 	0.0449846 	
08/12/2024 14:23:03 	-0.0697846 	-0.115015 	0.0452308 	
08/12/2024 14:23:04 	-0.0696615 	-0.114831 	0.0451692 	
08/12/2024 14:23:05 	-0.0696 	-0.114954 	0.0453538 	
08/12/2024 14:23:06 	-0.0695385 	-0.115138 	0.0456 	
08/12/2024 14:23:07 	-0.0696615 	-0.115077 	0.0454154 	
08/12/2024 14:23:08 	-0.0696615 	-0.114769 	0.0451077 	
08/12/2024 14:23:09 	-0.0697231 	-0.114585 	0.0448615 	
08/12/2024 14:23:10 	-0.0696615 	-0.114646 	0.0449846 	
08/12/2024 14:23:11 	-0.0697846 	-0.114892 	0.0451077 	
08/12/2024 14:23:12 	-0.0696615 	-0.114831 	0.0451692 	
08/12/2024 14:23:13 	-0.0696615 	-0.114769 	0.0451077 	
08/12/2024 14:23:14 	-0.0696 	-0.114831 	0.0452308 	
08/12/2024 14:23:15 	-0.0696615 	-0.114831 	0.0451692 	
08/12/2024 14:23:16 	-0.0696 	-0.114769 	0.0451692 	
08/12/2024 14:23:17 	-0.0697846 	-0.114708 	0.0449231 	
08/12/2024 14:23:18 	-0.0697231 	-0.114769 	0.0450462 	
08/12/2024 14:23:19 	-0.0696 	-0.114954 	0.0453538 	
08/12/2024 14:23:20 	-0.0689231 	-0.114585 	0.0456615 	
08/12/2024 14:23:21 	-0.0673231 	-0.114646 	0.0473231 	
08/12/2024 14:23:22 	-0.0672 	-0.115631 	0.0484308 	
08/12/2024 14:23:23 	-0.0693538 	-0.115262 	0.0459077 	
08/12/2024 14:23:24 	-0.0706462 	-0.115077 	0.0444308 	
08/12/2024 14:23:25 	-0.0702154 	-0.115138 	0.0449231 	
08/12/2024 14:23:26 	-0.0699077 	-0.1152 	0.0452923 	
08/12/2024 14:23:27 	-0.0695385 	-0.115138 	0.0456 	
08/12/2024 14:23:28 	-0.0693538 	-0.1152 	0.0458462 	
08/12/2024 14:23:29 	-0.0694154 	-0.114831 	0.0454154 	
08/12/2024 14:23:30 	-0.0694769 	-0.114831 	0.0453538 	
08/12/2024 14:23:31 	-0.0694154 	-0.114954 	0.0455385 	
08/12/2024 14:23:32 	-0.0694154 	-0.115015 	0.0456 	
08/12/2024 14:23:33 	-0.0694769 	-0.115138 	0.0456615 	
08/12/2024 14:23:34 	-0.0693538 	-0.115138 	0.0457846 	
08/12/2024 14:23:35 	-0.0693538 	-0.115138 	0.0457846 	
08/12/2024 14:23:36 	-0.0694769 	-0.115077 	0.0456 	
08/12/2024 14:23:37 	-0.0695385 	-0.114954 	0.0454154 	
08/12/2024 14:23:38 	-0.0694769 	-0.114831 	0.0453538 	
08/12/2024 14:23:39 	-0.0694154 	-0.114831 	0.0454154 	
08/12/2024 14:23:40 	-0.0694154 	-0.114954 	0.0455385 	
08/12/2024 14:23:41 	-0.0692923 	-0.115015 	0.0457231 	
08/12/2024 14:23:42 	-0.0692923 	-0.115077 	0.0457846 	
08/12/2024 14:23:43 	-0.0692923 	-0.115077 	0.0457846 	
08/12/2024 14:23:44 	-0.0692923 	-0.115077 	0.0457846 	
08/12/2024 14:23:45 	-0.0694769 	-0.115077 	0.0456 	
08/12/2024 14:23:46 	-0.0695385 	-0.115138 	0.0456 	
08/12/2024 14:23:47 	-0.0694154 	-0.115077 	0.0456615 	
08/12/2024 14:23:48 	-0.0693538 	-0.115077 	0.0457231 	
08/12/2024 14:23:49 	-0.0693538 	-0.115015 	0.0456615 	
08/12/2024 14:23:50 	-0.0692923 	-0.115077 	0.0457846 	
08/12/2024 14:23:51 	-0.0695385 	-0.115015 	0.0454769 	
08/12/2024 14:23:52 	-0.0696615 	-0.115077 	0.0454154 	
08/12/2024 14:23:53 	-0.0694769 	-0.115015 	0.0455385 	
08/12/2024 14:23:54 	-0.0694769 	-0.115015 	0.0455385 	
08/12/2024 14:23:55 	-0.0694154 	-0.114954 	0.0455385 	
08/12/2024 14:23:56 	-0.0694154 	-0.114954 	0.0455385 	
08/12/2024 14:23:57 	-0.0694154 	-0.115077 	0.0456615 	
08/12/2024 14:23:58 	-0.0694154 	-0.114892 	0.0454769 	
08/12/2024 14:23:59 	-0.0694154 	-0.114831 	0.0454154 	
08/12/2024 14:24:00 	-0.0693538 	-0.114954 	0.0456 	
08/12/2024 14:24:01 	-0.0692923 	-0.114831 	0.0455385 	
08/12/2024 14:24:02 	-0.0693538 	-0.115015 	0.0456615 	
08/12/2024 14:24:03 	-0.0692923 	-0.115015 	0.0457231 	
08/12/2024 14:24:04 	-0.0693538 	-0.115077 	0.0457231 	
08/12/2024 14:24:05 	-0.0692308 	-0.115138 	0.0459077 	
08/12/2024 14:24:06 	-0.0688615 	-0.115385 	0.0465231 	
08/12/2024 14:24:07 	-0.0685538 	-0.115631 	0.0470769 	
08/12/2024 14:24:08 	-0.0687385 	-0.115877 	0.0471385 	
08/12/2024 14:24:09 	-0.0688 	-0.116 	0.0472 	
08/12/2024 14:24:10 	-0.0686769 	-0.116185 	0.0475077 	
08/12/2024 14:24:11 	-0.0687385 	-0.115938 	0.0472 	
08/12/2024 14:24:12 	-0.0688 	-0.115877 	0.0470769 	
08/12/2024 14:24:13 	-0.0687385 	-0.115815 	0.0470769 	
08/12/2024 14:24:14 	-0.0688 	-0.115754 	0.0469538 	
08/12/2024 14:24:15 	-0.0686769 	-0.115569 	0.0468923 	
08/12/2024 14:24:16 	-0.0685538 	-0.115385 	0.0468308 	
08/12/2024 14:24:17 	-0.0686769 	-0.115385 	0.0467077 	
08/12/2024 14:24:18 	-0.0686769 	-0.115446 	0.0467692 	
08/12/2024 14:24:19 	-0.0686154 	-0.115508 	0.0468923 	
08/12/2024 14:24:20 	-0.0687385 	-0.115446 	0.0467077 	
08/12/2024 14:24:21 	-0.0686154 	-0.115385 	0.0467692 	
08/12/2024 14:24:22 	-0.0686769 	-0.115631 	0.0469538 	
08/12/2024 14:24:23 	-0.0686154 	-0.115692 	0.0470769 	
08/12/2024 14:24:24 	-0.0688 	-0.115692 	0.0468923 	
08/12/2024 14:24:25 	-0.0687385 	-0.115692 	0.0469538 	
08/12/2024 14:24:26 	-0.0688615 	-0.115692 	0.0468308 	
08/12/2024 14:24:27 	-0.0688615 	-0.115754 	0.0468923 	
08/12/2024 14:24:28 	-0.0688 	-0.115692 	0.0468923 	
08/12/2024 14:24:29 	-0.0686769 	-0.115569 	0.0468923 	
08/12/2024 14:24:30 	-0.0685538 	-0.115569 	0.0470154 	
08/12/2024 14:24:31 	-0.0686154 	-0.115385 	0.0467692 	
08/12/2024 14:24:32 	-0.0686154 	-0.115262 	0.0466462 	
08/12/2024 14:24:33 	-0.0687385 	-0.115262 	0.0465231 	
08/12/2024 14:24:34 	-0.0686769 	-0.115508 	0.0468308 	
08/12/2024 14:24:35 	-0.0688 	-0.115385 	0.0465846 	
08/12/2024 14:24:36 	-0.0686769 	-0.115446 	0.0467692 	
08/12/2024 14:24:37 	-0.0686154 	-0.115508 	0.0468923 	
08/12/2024 14:24:38 	-0.0685538 	-0.115385 	0.0468308 	
08/12/2024 14:24:39 	-0.0686769 	-0.115323 	0.0466462 	
08/12/2024 14:24:40 	-0.0686154 	-0.115323 	0.0467077 	
08/12/2024 14:24:41 	-0.0686769 	-0.1152 	0.0465231 	
08/12/2024 14:24:42 	-0.0687385 	-0.115138 	0.0464 	
08/12/2024 14:24:43 	-0.0688 	-0.115262 	0.0464615 	
08/12/2024 14:24:44 	-0.0689231 	-0.1152 	0.0462769 	
08/12/2024 14:24:45 	-0.0687385 	-0.115138 	0.0464 	
08/12/2024 14:24:46 	-0.0686769 	-0.115015 	0.0463385 	
08/12/2024 14:24:47 	-0.0686769 	-0.115015 	0.0463385 	
08/12/2024 14:24:48 	-0.0686769 	-0.114892 	0.0462154 	
08/12/2024 14:24:49 	-0.0686769 	-0.114831 	0.0461538 	
08/12/2024 14:24:50 	-0.0687385 	-0.114769 	0.0460308 	
08/12/2024 14:24:51 	-0.0687385 	-0.114892 	0.0461538 	
08/12/2024 14:24:52 	-0.0688 	-0.115323 	0.0465231 	
08/12/2024 14:24:53 	-0.0685538 	-0.115631 	0.0470769 	
08/12/2024 14:24:54 	-0.0685538 	-0.115569 	0.0470154 	
08/12/2024 14:24:55 	-0.0689231 	-0.115692 	0.0467692 	
08/12/2024 14:24:56 	-0.0690462 	-0.115692 	0.0466462 	
08/12/2024 14:24:57 	-0.0689846 	-0.115692 	0.0467077 	
08/12/2024 14:24:58 	-0.0689231 	-0.115631 	0.0467077 	
08/12/2024 14:24:59 	-0.0688 	-0.115754 	0.0469538 	
08/12/2024 14:25:00 	-0.0688 	-0.115692 	0.0468923 	
08/12/2024 14:25:01 	-0.0688615 	-0.115815 	0.0469538 	
08/12/2024 14:25:02 	-0.0689231 	-0.115692 	0.0467692 	
08/12/2024 14:25:03 	-0.0689231 	-0.115631 	0.0467077 	
08/12/2024 14:25:04 	-0.0688615 	-0.115631 	0.0467692 	
08/12/2024 14:25:05 	-0.0687385 	-0.115815 	0.0470769 	
08/12/2024 14:25:06 	-0.0686769 	-0.115815 	0.0471385 	
08/12/2024 14:25:07 	-0.0686769 	-0.115815 	0.0471385 	
08/12/2024 14:25:08 	-0.0687385 	-0.115692 	0.0469538 	
08/12/2024 14:25:09 	-0.0687385 	-0.115692 	0.0469538 	
08/12/2024 14:25:10 	-0.0688 	-0.115569 	0.0467692 	
08/12/2024 14:25:11 	-0.0688 	-0.115754 	0.0469538 	
08/12/2024 14:25:12 	-0.0688 	-0.115877 	0.0470769 	
08/12/2024 14:25:13 	-0.0689846 	-0.115938 	0.0469538 	
08/12/2024 14:25:14 	-0.0687385 	-0.115815 	0.0470769 	
08/12/2024 14:25:15 	-0.0686154 	-0.115815 	0.0472 	
08/12/2024 14:25:16 	-0.0686769 	-0.115815 	0.0471385 	
08/12/2024 14:25:17 	-0.0686769 	-0.115938 	0.0472615 	
08/12/2024 14:25:18 	-0.0687385 	-0.115938 	0.0472 	
08/12/2024 14:25:19 	-0.0687385 	-0.115938 	0.0472 	
08/12/2024 14:25:20 	-0.0687385 	-0.116 	0.0472615 	
08/12/2024 14:25:21 	-0.0686769 	-0.115938 	0.0472615 	
08/12/2024 14:25:22 	-0.0687385 	-0.115877 	0.0471385 	
08/12/2024 14:25:23 	-0.0686769 	-0.115877 	0.0472 	
08/12/2024 14:25:24 	-0.0686769 	-0.115938 	0.0472615 	
08/12/2024 14:25:25 	-0.0686769 	-0.115877 	0.0472 	
08/12/2024 14:25:26 	-0.0686154 	-0.115754 	0.0471385 	
08/12/2024 14:25:27 	-0.0685538 	-0.115754 	0.0472 	
08/12/2024 14:25:28 	-0.0684923 	-0.115754 	0.0472615 	
08/12/2024 14:25:29 	-0.0684923 	-0.115877 	0.0473846 	
08/12/2024 14:25:30 	-0.0684923 	-0.115815 	0.0473231 	
08/12/2024 14:25:31 	-0.0686154 	-0.115754 	0.0471385 	
08/12/2024 14:25:32 	-0.0685538 	-0.115754 	0.0472 	
08/12/2024 14:25:33 	-0.0685538 	-0.115815 	0.0472615 	
08/12/2024 14:25:34 	-0.0684923 	-0.115815 	0.0473231 	
08/12/2024 14:25:35 	-0.0686154 	-0.115692 	0.0470769 	
08/12/2024 14:25:36 	-0.0686154 	-0.115508 	0.0468923 	
08/12/2024 14:25:37 	-0.0686769 	-0.115385 	0.0467077 	
08/12/2024 14:25:38 	-0.0686769 	-0.115446 	0.0467692 	